-- The following file was written from MATLAB using the MRST toolbox.

SPECGRID
1 1 3 1 F
/

COORD
     0.000000     0.000000     0.000000     0.000000     0.000000     0.000000
     1.000000     0.000000     0.000000     1.000000     0.000000     0.000000
     0.000000     1.000000     0.000000     0.000000     1.000000     0.000000
     1.000000     1.000000     0.000000     1.000000     1.000000     0.000000
/

ZCORN
     0.000000     0.000000     0.000000     0.000000     1.000000     1.000000     2.000000     1.000000
     1.000000     1.000000     2.000000     1.000000     2.000000     2.000000     2.000000     2.000000
     2.000000     2.000000     2.000000     2.000000     3.000000     3.000000     3.000000     3.000000
/
