-- The following file was written from MATLAB using the MRST toolbox.

SPECGRID
2 3 5 1 F
/

COORD
     0.000000     0.000000    -4.886455     0.000000     0.000000     9.994825
   500.000000     0.000000    -0.113545   500.000000     0.000000    15.005175
  1000.000000     0.000000     5.113545  1000.000000     0.000000    19.994825
     0.000000   200.000000    -2.569597     0.000000   200.000000    12.601028
   500.000000   200.000000    -2.430403   500.000000   200.000000    12.398972
  1000.000000   200.000000     7.430403  1000.000000   200.000000    22.601028
     0.000000   400.000000    -2.347796     0.000000   400.000000    12.600300
   500.000000   400.000000    -2.652204   500.000000   400.000000    12.399700
  1000.000000   400.000000     7.652204  1000.000000   400.000000    22.600300
     0.000000   600.000000    -4.886455     0.000000   600.000000     9.994825
   500.000000   600.000000    -0.113545   500.000000   600.000000    15.005175
  1000.000000   600.000000     5.113545  1000.000000   600.000000    19.994825
/

ZCORN
    -6.886455    -2.113545    -0.113545     5.113545    -4.569597    -4.430403    -2.430403     7.430403
    -4.569597    -4.430403     0.569597    10.430403    -4.347796    -4.652204     0.347796    10.652204
    -2.347796    -2.652204     0.347796    10.652204    -4.886455    -0.113545     2.886455     8.113545
    -3.990412     0.990412     2.990412     8.009588    -1.275209    -1.724791     0.275209    10.724791
    -1.275209    -1.724791     3.275209    13.724791    -1.538226    -1.461774     3.538226    13.461774
     0.461774     0.538226     3.538226    13.461774    -1.990412     2.990412     5.990412    11.009588
    -3.990412     0.990412     2.990412     8.009588    -1.275209    -1.724791     0.275209    10.724791
    -1.275209    -1.724791     3.275209    13.724791    -1.538226    -1.461774     3.538226    13.461774
     0.461774     0.538226     3.538226    13.461774    -1.990412     2.990412     5.990412    11.009588
    -0.982395     3.982395     5.982395    11.017605     1.571705     1.428295     3.428295    13.571705
     1.571705     1.428295     6.428295    16.571705     1.606843     1.393157     6.393157    16.606843
     3.606843     3.393157     6.393157    16.606843     1.017605     5.982395     8.982395    14.017605
    -0.982395     3.982395     5.982395    11.017605     1.571705     1.428295     3.428295    13.571705
     1.571705     1.428295     6.428295    16.571705     1.606843     1.393157     6.393157    16.606843
     3.606843     3.393157     6.393157    16.606843     1.017605     5.982395     8.982395    14.017605
     2.033799     6.966201     8.966201    14.033799     4.721981     4.278019     6.278019    16.721981
     4.721981     4.278019     9.278019    19.721981     4.440372     4.559628     9.559628    19.440372
     6.440372     6.559628     9.559628    19.440372     4.033799     8.966201    11.966201    17.033799
     2.033799     6.966201     8.966201    14.033799     4.721981     4.278019     6.278019    16.721981
     4.721981     4.278019     9.278019    19.721981     4.440372     4.559628     9.559628    19.440372
     6.440372     6.559628     9.559628    19.440372     4.033799     8.966201    11.966201    17.033799
     4.961800    10.038200    12.038200    16.961800     7.352067     7.647933     9.647933    19.352067
     7.352067     7.647933    12.647933    22.352067     7.882285     7.117715    12.117715    22.882285
     9.882285     9.117715    12.117715    22.882285     6.961800    12.038200    15.038200    19.961800
     4.961800    10.038200    12.038200    16.961800     7.352067     7.647933     9.647933    19.352067
     7.352067     7.647933    12.647933    22.352067     7.882285     7.117715    12.117715    22.882285
     9.882285     9.117715    12.117715    22.882285     6.961800    12.038200    15.038200    19.961800
     7.994825    13.005175    15.005175    19.994825    10.601028    10.398972    12.398972    22.601028
    10.601028    10.398972    15.398972    25.601028    10.600300    10.399700    15.399700    25.600300
    12.600300    12.399700    15.399700    25.600300     9.994825    15.005175    18.005175    22.994825
/

ACTNUM
 0 0 1 1 0 0 0 0 1 1 0 0 0 0 1 1 0 0 0 0
 1 1 0 0 0 0 1 1 0 0 /
