-- The following file was written from MATLAB using the MRST toolbox.

SPECGRID
20 20 50 1 F
/

COORD
     0.000000     0.000000    -5.003146     0.000000     0.000000     9.996278
    50.000000     0.000000    -4.026924    50.000000     0.000000    10.986005
   100.000000     0.000000    -3.018327   100.000000     0.000000    12.006841
   150.000000     0.000000    -2.062664   150.000000     0.000000    12.972279
   200.000000     0.000000    -1.231485   200.000000     0.000000    13.809813
   250.000000     0.000000    -0.576118   250.000000     0.000000    14.467493
   300.000000     0.000000    -0.123382   300.000000     0.000000    14.918273
   350.000000     0.000000     0.126114   350.000000     0.000000    15.161735
   400.000000     0.000000     0.196961   400.000000     0.000000    15.223062
   450.000000     0.000000     0.135329   450.000000     0.000000    15.149354
   500.000000     0.000000     0.003146   500.000000     0.000000    15.003722
   550.000000     0.000000    -0.129346   550.000000     0.000000    14.857726
   600.000000     0.000000    -0.191871   600.000000     0.000000    14.782961
   650.000000     0.000000    -0.122416   650.000000     0.000000    14.842640
   700.000000     0.000000     0.125327   700.000000     0.000000    15.084028
   750.000000     0.000000     0.576118   750.000000     0.000000    15.532507
   800.000000     0.000000     1.229541   800.000000     0.000000    16.187886
   850.000000     0.000000     2.058966   850.000000     0.000000    17.023345
   900.000000     0.000000     3.013237   900.000000     0.000000    17.987136
   950.000000     0.000000     4.020940   950.000000     0.000000    19.006915
  1000.000000     0.000000     4.996854  1000.000000     0.000000    19.996278
     0.000000    30.000000    -4.551654     0.000000    30.000000    10.529191
    50.000000    30.000000    -3.679948    50.000000    30.000000    11.465436
   100.000000    30.000000    -2.809833   100.000000    30.000000    12.385861
   150.000000    30.000000    -2.013060   150.000000    30.000000    13.213786
   200.000000    30.000000    -1.345627   200.000000    30.000000    13.890167
   250.000000    30.000000    -0.842833   250.000000    30.000000    14.378828
   300.000000    30.000000    -0.516562   300.000000    30.000000    14.669268
   350.000000    30.000000    -0.355043   350.000000    30.000000    14.776765
   400.000000    30.000000    -0.325075   400.000000    30.000000    14.739810
   450.000000    30.000000    -0.376485   450.000000    30.000000    14.615125
   500.000000    30.000000    -0.448346   500.000000    30.000000    14.470809
   550.000000    30.000000    -0.476321   550.000000    30.000000    14.378295
   600.000000    30.000000    -0.400365   600.000000    30.000000    14.403942
   650.000000    30.000000    -0.172020   650.000000    30.000000    14.601134
   700.000000    30.000000     0.239468   700.000000    30.000000    15.003674
   750.000000    30.000000     0.842833   750.000000    30.000000    15.621172
   800.000000    30.000000     1.622720   800.000000    30.000000    16.436891
   850.000000    30.000000     2.540123   850.000000    30.000000    17.408315
   900.000000    30.000000     3.535272   900.000000    30.000000    18.470388
   950.000000    30.000000     4.532754   950.000000    30.000000    19.541145
  1000.000000    30.000000     5.448346  1000.000000    30.000000    20.529191
     0.000000    60.000000    -4.103712     0.000000    60.000000    11.027673
    50.000000    60.000000    -3.326984    50.000000    60.000000    11.895324
   100.000000    60.000000    -2.586396   100.000000    60.000000    12.705075
   150.000000    60.000000    -1.941023   150.000000    60.000000    13.391079
   200.000000    60.000000    -1.432040   200.000000    60.000000    13.908184
   250.000000    60.000000    -1.079238   250.000000    60.000000    14.235805
   300.000000    60.000000    -0.879818   300.000000    60.000000    14.379206
   350.000000    60.000000    -0.809592   350.000000    60.000000    14.368057
   400.000000    60.000000    -0.826422   400.000000    60.000000    14.252462
   450.000000    60.000000    -0.875555   450.000000    60.000000    14.096843
   500.000000    60.000000    -0.896288   500.000000    60.000000    13.972327
   550.000000    60.000000    -0.829285   550.000000    60.000000    13.948406
   600.000000    60.000000    -0.623802   600.000000    60.000000    14.084728
   650.000000    60.000000    -0.244058   650.000000    60.000000    14.423841
   700.000000    60.000000     0.325882   700.000000    60.000000    14.985658
   750.000000    60.000000     1.079238   750.000000    60.000000    15.764195
   800.000000    60.000000     1.985977   800.000000    60.000000    16.726953
   850.000000    60.000000     2.994672   850.000000    60.000000    17.817023
   900.000000    60.000000     4.036620   900.000000    60.000000    18.957735
   950.000000    60.000000     5.031825   950.000000    60.000000    20.059426
  1000.000000    60.000000     5.896288  1000.000000    60.000000    21.027673
     0.000000    90.000000    -3.666847     0.000000    90.000000    11.464894
    50.000000    90.000000    -2.959420    50.000000    90.000000    12.254899
   100.000000    90.000000    -2.324111   100.000000    90.000000    12.951805
   150.000000    90.000000    -1.809692   150.000000    90.000000    13.500813
   200.000000    90.000000    -1.444520   200.000000    90.000000    13.870180
   250.000000    90.000000    -1.234305   250.000000    90.000000    14.053785
   300.000000    90.000000    -1.162295   300.000000    90.000000    14.070985
   350.000000    90.000000    -1.191827   350.000000    90.000000    13.963807
   400.000000    90.000000    -1.271000   400.000000    90.000000    13.791754
   450.000000    90.000000    -1.338957   450.000000    90.000000    13.624774
   500.000000    90.000000    -1.333153   500.000000    90.000000    13.535106
   550.000000    90.000000    -1.196850   550.000000    90.000000    13.588832
   600.000000    90.000000    -0.886086   600.000000    90.000000    13.837998
   650.000000    90.000000    -0.375388   650.000000    90.000000    14.314107
   700.000000    90.000000     0.338361   700.000000    90.000000    15.023661
   750.000000    90.000000     1.234305   750.000000    90.000000    15.946215
   800.000000    90.000000     2.268453   800.000000    90.000000    17.035174
   850.000000    90.000000     3.376907   850.000000    90.000000    18.221273
   900.000000    90.000000     4.481197   900.000000    90.000000    19.418444
   950.000000    90.000000     5.495226   950.000000    90.000000    20.531495
  1000.000000    90.000000     6.333153  1000.000000    90.000000    21.464894
     0.000000   120.000000    -3.252511     0.000000   120.000000    11.829266
    50.000000   120.000000    -2.589736    50.000000   120.000000    12.534730
   100.000000   120.000000    -2.035267   100.000000   120.000000    13.119704
   150.000000   120.000000    -1.629962   150.000000   120.000000    13.540344
   200.000000   120.000000    -1.391497   200.000000   120.000000    13.777474
   250.000000   120.000000    -1.313180   250.000000   120.000000    13.837916
   300.000000   120.000000    -1.365346   300.000000   120.000000    13.753084
   350.000000   120.000000    -1.499179   350.000000   120.000000    13.574993
   400.000000   120.000000    -1.652566   400.000000   120.000000    13.370087
   450.000000   120.000000    -1.757388   450.000000   120.000000    13.211529
   500.000000   120.000000    -1.747489   500.000000   120.000000    13.170734
   550.000000   120.000000    -1.566534   550.000000   120.000000    13.309001
   600.000000   120.000000    -1.174930   600.000000   120.000000    13.670099
   650.000000   120.000000    -0.555118   650.000000   120.000000    14.274576
   700.000000   120.000000     0.285338   700.000000   120.000000    15.116367
   750.000000   120.000000     1.313180   750.000000   120.000000    16.162084
   800.000000   120.000000     2.471505   800.000000   120.000000    17.353074
   850.000000   120.000000     3.684259   850.000000   120.000000    18.610087
   900.000000   120.000000     4.862764   900.000000   120.000000    19.840111
   950.000000   120.000000     5.913657   950.000000   120.000000    20.944741
  1000.000000   120.000000     6.747489  1000.000000   120.000000    21.829266
     0.000000   150.000000    -2.875534     0.000000   150.000000    12.125043
    50.000000   150.000000    -2.249889    50.000000   150.000000    12.737183
   100.000000   150.000000    -1.765818   100.000000   150.000000    13.209015
   150.000000   150.000000    -1.457285   150.000000   150.000000    13.507771
   200.000000   150.000000    -1.332495   200.000000   150.000000    13.626206
   250.000000   150.000000    -1.373629   250.000000   150.000000    13.582759
   300.000000   150.000000    -1.539329   300.000000   150.000000    13.419016
   350.000000   150.000000    -1.769665   350.000000   150.000000    13.194714
   400.000000   150.000000    -1.993079   400.000000   150.000000    12.980821
   450.000000   150.000000    -2.134594   450.000000   150.000000    12.851381
   500.000000   150.000000    -2.124466   500.000000   150.000000    12.874957
   550.000000   150.000000    -1.906380   550.000000   150.000000    13.106548
   600.000000   150.000000    -1.444380   600.000000   150.000000    13.580788
   650.000000   150.000000    -0.727795   650.000000   150.000000    14.307149
   700.000000   150.000000     0.226337   700.000000   150.000000    15.267635
   750.000000   150.000000     1.373629   750.000000   150.000000    16.417241
   800.000000   150.000000     2.645488   800.000000   150.000000    17.687143
   850.000000   150.000000     3.954745   850.000000   150.000000    18.990366
   900.000000   150.000000     5.203276   900.000000   150.000000    20.229377
   950.000000   150.000000     6.290864   950.000000   150.000000    21.304889
  1000.000000   150.000000     7.124466  1000.000000   150.000000    22.125043
     0.000000   180.000000    -2.551992     0.000000   180.000000    12.367164
    50.000000   180.000000    -1.981794    50.000000   180.000000    12.872822
   100.000000   180.000000    -1.579412   100.000000   180.000000    13.224894
   150.000000   180.000000    -1.370816   150.000000   180.000000    13.402338
   200.000000   180.000000    -1.354427   200.000000   180.000000    13.409779
   250.000000   180.000000    -1.501814   250.000000   180.000000    13.276525
   300.000000   180.000000    -1.761220   300.000000   180.000000    13.052950
   350.000000   180.000000    -2.063542   350.000000   180.000000    12.804650
   400.000000   180.000000    -2.330175   400.000000   180.000000    12.604941
   450.000000   180.000000    -2.481912   450.000000   180.000000    12.526478
   500.000000   180.000000    -2.448008   500.000000   180.000000    12.632836
   550.000000   180.000000    -2.174475   550.000000   180.000000    12.970909
   600.000000   180.000000    -1.630785   600.000000   180.000000    13.564908
   650.000000   180.000000    -0.814264   650.000000   180.000000    14.412582
   700.000000   180.000000     0.248268   700.000000   180.000000    15.484062
   750.000000   180.000000     1.501814   750.000000   180.000000    16.723475
   800.000000   180.000000     2.867379   800.000000   180.000000    18.053209
   850.000000   180.000000     4.248622   850.000000   180.000000    19.380430
   900.000000   180.000000     5.540372   900.000000   180.000000    20.605257
   950.000000   180.000000     6.638182   950.000000   180.000000    21.629791
  1000.000000   180.000000     7.448008  1000.000000   180.000000    22.367164
     0.000000   210.000000    -2.296217     0.000000   210.000000    12.572398
    50.000000   210.000000    -1.823479    50.000000   210.000000    12.954213
   100.000000   210.000000    -1.534053   100.000000   210.000000    13.174476
   150.000000   210.000000    -1.442854   150.000000   210.000000    13.225045
   200.000000   210.000000    -1.536809   200.000000   210.000000    13.122967
   250.000000   210.000000    -1.776689   250.000000   210.000000    12.908268
   300.000000   210.000000    -2.101680   300.000000   210.000000    12.639296
   350.000000   210.000000    -2.436261   350.000000   210.000000    12.386090
   400.000000   210.000000    -2.698668   400.000000   210.000000    12.222447
   450.000000   210.000000    -2.810110   450.000000   210.000000    12.217492
   500.000000   210.000000    -2.703783   500.000000   210.000000    12.427602
   550.000000   210.000000    -2.332791   550.000000   210.000000    12.889518
   600.000000   210.000000    -1.676144   600.000000   210.000000    13.615326
   650.000000   210.000000    -0.742227   650.000000   210.000000    14.589875
   700.000000   210.000000     0.430651   700.000000   210.000000    15.770875
   750.000000   210.000000     1.776689   750.000000   210.000000    17.091732
   800.000000   210.000000     3.207839   800.000000   210.000000    18.466862
   850.000000   210.000000     4.621341   850.000000   210.000000    19.798990
   900.000000   210.000000     5.908866   900.000000   210.000000    20.987751
   950.000000   210.000000     6.966379   950.000000   210.000000    21.938778
  1000.000000   210.000000     7.703783  1000.000000   210.000000    22.572398
     0.000000   240.000000    -2.118012     0.000000   240.000000    12.750247
    50.000000   240.000000    -1.796144    50.000000   240.000000    12.989538
   100.000000   240.000000    -1.660265   100.000000   240.000000    13.063819
   150.000000   240.000000    -1.710257   150.000000   240.000000    12.979238
   200.000000   240.000000    -1.919229   200.000000   240.000000    12.766070
   250.000000   240.000000    -2.236692   250.000000   240.000000    12.475218
   300.000000   240.000000    -2.594238   300.000000   240.000000    12.172483
   350.000000   240.000000    -2.913158   350.000000   240.000000    11.931209
   400.000000   240.000000    -3.113222   400.000000   240.000000    11.824024
   450.000000   240.000000    -3.121742   450.000000   240.000000    11.914527
   500.000000   240.000000    -2.881988   500.000000   240.000000    12.249753
   550.000000   240.000000    -2.360126   550.000000   240.000000    12.854192
   600.000000   240.000000    -1.549933   600.000000   240.000000    13.725983
   650.000000   240.000000    -0.474823   650.000000   240.000000    14.835682
   700.000000   240.000000     0.813071   700.000000   240.000000    16.127771
   750.000000   240.000000     2.236692   750.000000   240.000000    17.524782
   800.000000   240.000000     3.700396   800.000000   240.000000    18.933676
   850.000000   240.000000     5.098238   850.000000   240.000000    20.253872
   900.000000   240.000000     6.323420   900.000000   240.000000    21.386174
   950.000000   240.000000     7.278011   950.000000   240.000000    22.241742
  1000.000000   240.000000     7.881988  1000.000000   240.000000    22.750247
     0.000000   270.000000    -2.021068     0.000000   270.000000    12.897155
    50.000000   270.000000    -1.897032    50.000000   270.000000    12.978503
   100.000000   270.000000    -1.949109   100.000000   270.000000    12.895920
   150.000000   270.000000    -2.158783   150.000000   270.000000    12.670911
   200.000000   270.000000    -2.483532   200.000000   270.000000    12.347497
   250.000000   270.000000    -2.861533   250.000000   270.000000    11.987371
   300.000000   270.000000    -3.218454   300.000000   270.000000    11.663115
   350.000000   270.000000    -3.475647   350.000000   270.000000    11.450181
   400.000000   270.000000    -3.558924   400.000000   270.000000    11.418423
   450.000000   270.000000    -3.407027   450.000000   270.000000    11.624056
   500.000000   270.000000    -2.978932   500.000000   270.000000    12.102845
   550.000000   270.000000    -2.259238   550.000000   270.000000    12.865228
   600.000000   270.000000    -1.261089   600.000000   270.000000    13.893882
   650.000000   270.000000    -0.026298   650.000000   270.000000    15.144009
   700.000000   270.000000     1.377373   700.000000   270.000000    16.546345
   750.000000   270.000000     2.861533   750.000000   270.000000    18.012629
   800.000000   270.000000     4.324613   800.000000   270.000000    19.443043
   850.000000   270.000000     5.660727   850.000000   270.000000    20.734899
   900.000000   270.000000     6.769122   900.000000   270.000000    21.791775
   950.000000   270.000000     7.563297   950.000000   270.000000    22.532213
  1000.000000   270.000000     7.978932  1000.000000   270.000000    22.897155
     0.000000   300.000000    -2.003146     0.000000   300.000000    12.996278
    50.000000   300.000000    -2.100805    50.000000   300.000000    12.912123
   100.000000   300.000000    -2.354631   100.000000   300.000000    12.670536
   150.000000   300.000000    -2.726359   150.000000   300.000000    12.308584
   200.000000   300.000000    -3.157604   200.000000   300.000000    11.883695
   250.000000   300.000000    -3.576118   250.000000   300.000000    11.467493
   300.000000   300.000000    -3.903603   300.000000   300.000000    11.138052
   350.000000   300.000000    -4.064292   350.000000   300.000000    10.971329
   400.000000   300.000000    -3.993446   400.000000   300.000000    11.032655
   450.000000   300.000000    -3.644891   450.000000   300.000000    11.369134
   500.000000   300.000000    -2.996854   500.000000   300.000000    12.003722
   550.000000   300.000000    -2.055464   550.000000   300.000000    12.931607
   600.000000   300.000000    -0.855566   600.000000   300.000000    14.119266
   650.000000   300.000000     0.541279   650.000000   300.000000    15.506336
   700.000000   300.000000     2.051445   700.000000   300.000000    17.010147
   750.000000   300.000000     3.576118   750.000000   300.000000    18.532507
   800.000000   300.000000     5.009762   800.000000   300.000000    19.968107
   850.000000   300.000000     6.249373   850.000000   300.000000    21.213751
   900.000000   300.000000     7.203643   900.000000   300.000000    22.177543
   950.000000   300.000000     7.801161   950.000000   300.000000    22.787136
  1000.000000   300.000000     7.996854  1000.000000   300.000000    22.996278
     0.000000   330.000000    -2.057892     0.000000   330.000000    13.022952
    50.000000   330.000000    -2.368900    50.000000   330.000000    12.776484
   100.000000   330.000000    -2.809833   100.000000   330.000000    12.385861
   150.000000   330.000000    -3.324108   150.000000   330.000000    11.902738
   200.000000   330.000000    -3.839389   200.000000   330.000000    11.396405
   250.000000   330.000000    -4.275201   250.000000   330.000000    10.946460
   300.000000   330.000000    -4.551553   300.000000   330.000000    10.634277
   350.000000   330.000000    -4.597683   350.000000   330.000000    10.534125
   400.000000   330.000000    -4.360066   400.000000   330.000000    10.704819
   450.000000   330.000000    -3.808853   450.000000   330.000000    11.182756
   500.000000   330.000000    -2.942108   500.000000   330.000000    11.977048
   550.000000   330.000000    -1.787369   550.000000   330.000000    13.067247
   600.000000   330.000000    -0.400365   600.000000   330.000000    14.403942
   650.000000   330.000000     1.139028   650.000000   330.000000    15.912182
   700.000000   330.000000     2.733230   700.000000   330.000000    17.497436
   750.000000   330.000000     4.275201   750.000000   330.000000    19.053540
   800.000000   330.000000     5.657712   800.000000   330.000000    20.471882
   850.000000   330.000000     6.782764   850.000000   330.000000    21.650955
   900.000000   330.000000     7.570263   900.000000   330.000000    22.505379
   950.000000   330.000000     7.965122   950.000000   330.000000    22.973513
  1000.000000   330.000000     7.942108  1000.000000   330.000000    23.022952
     0.000000   360.000000    -2.177594     0.000000   360.000000    12.953792
    50.000000   360.000000    -2.663289    50.000000   360.000000    12.559020
   100.000000   360.000000    -3.250091   100.000000   360.000000    12.041380
   150.000000   360.000000    -3.867141   150.000000   360.000000    11.464960
   200.000000   360.000000    -4.432040   200.000000   360.000000    10.908184
   250.000000   360.000000    -4.859458   250.000000   360.000000    10.455585
   300.000000   360.000000    -5.070225   300.000000   360.000000    10.188799
   350.000000   360.000000    -4.999999   350.000000   360.000000    10.177650
   400.000000   360.000000    -4.606643   400.000000   360.000000    10.472242
   450.000000   360.000000    -3.875555   450.000000   360.000000    11.096843
   500.000000   360.000000    -2.822406   500.000000   360.000000    12.046208
   550.000000   360.000000    -1.492981   550.000000   360.000000    13.284711
   600.000000   360.000000     0.039893   600.000000   360.000000    14.748423
   650.000000   360.000000     1.682061   650.000000   360.000000    16.349959
   700.000000   360.000000     3.325882   700.000000   360.000000    17.985658
   750.000000   360.000000     4.859458   750.000000   360.000000    19.544415
   800.000000   360.000000     6.176383   800.000000   360.000000    20.917360
   850.000000   360.000000     7.185079   850.000000   360.000000    22.007430
   900.000000   360.000000     7.816841   900.000000   360.000000    22.737956
   950.000000   360.000000     8.031825   950.000000   360.000000    23.059426
  1000.000000   360.000000     7.822406  1000.000000   360.000000    22.953792
     0.000000   390.000000    -2.355799     0.000000   390.000000    12.775942
    50.000000   390.000000    -2.959420    50.000000   390.000000    12.254899
   100.000000   390.000000    -3.635159   100.000000   390.000000    11.640757
   150.000000   390.000000    -4.303454   150.000000   390.000000    11.007052
   200.000000   390.000000    -4.876888   200.000000   390.000000    10.437812
   250.000000   390.000000    -5.269296   250.000000   390.000000    10.018793
   300.000000   390.000000    -5.404935   300.000000   390.000000     9.828344
   350.000000   390.000000    -5.226818   350.000000   390.000000     9.928816
   400.000000   390.000000    -4.703368   400.000000   390.000000    10.359386
   450.000000   390.000000    -3.832719   450.000000   390.000000    11.131012
   500.000000   390.000000    -2.644201   500.000000   390.000000    12.224058
   550.000000   390.000000    -1.196850   550.000000   390.000000    13.588832
   600.000000   390.000000     0.424962   600.000000   390.000000    15.149046
   650.000000   390.000000     2.118374   650.000000   390.000000    16.807868
   700.000000   390.000000     3.770729   700.000000   390.000000    18.456029
   750.000000   390.000000     5.269296   750.000000   390.000000    19.981207
   800.000000   390.000000     6.511094   800.000000   390.000000    21.277815
   850.000000   390.000000     7.411898   850.000000   390.000000    22.256264
   900.000000   390.000000     7.913566   900.000000   390.000000    22.850812
   950.000000   390.000000     7.988988   950.000000   390.000000    23.025257
  1000.000000   390.000000     7.644201  1000.000000   390.000000    22.775942
     0.000000   420.000000    -2.588816     0.000000   420.000000    12.492961
    50.000000   420.000000    -3.253431    50.000000   420.000000    11.871035
   100.000000   420.000000    -3.961386   100.000000   420.000000    11.193585
   150.000000   420.000000    -4.629962   150.000000   420.000000    10.540344
   200.000000   420.000000    -5.171718   200.000000   420.000000     9.997254
   250.000000   420.000000    -5.503587   250.000000   420.000000     9.647509
   300.000000   420.000000    -5.555753   300.000000   420.000000     9.562678
   350.000000   420.000000    -5.279399   350.000000   420.000000     9.794773
   400.000000   420.000000    -4.652566   400.000000   420.000000    10.370087
   450.000000   420.000000    -3.683506   450.000000   420.000000    11.285410
   500.000000   420.000000    -2.411184   500.000000   420.000000    12.507039
   550.000000   420.000000    -0.902838   550.000000   420.000000    13.972696
   600.000000   420.000000     0.751188   600.000000   420.000000    15.596217
   650.000000   420.000000     2.444882   650.000000   420.000000    17.274576
   700.000000   420.000000     4.065559   700.000000   420.000000    18.896587
   750.000000   420.000000     5.503587   750.000000   420.000000    20.352491
   800.000000   420.000000     6.661911   800.000000   420.000000    21.543481
   850.000000   420.000000     7.464479   850.000000   420.000000    22.390307
   900.000000   420.000000     7.862764   900.000000   420.000000    22.840111
   950.000000   420.000000     7.839776   950.000000   420.000000    22.870859
  1000.000000   420.000000     7.411184  1000.000000   420.000000    22.492961
     0.000000   450.000000    -2.875534     0.000000   450.000000    12.125043
    50.000000   450.000000    -3.560937    50.000000   450.000000    11.426135
   100.000000   450.000000    -4.259579   100.000000   450.000000    10.715253
   150.000000   450.000000    -4.889654   150.000000   450.000000    10.075403
   200.000000   450.000000    -5.367486   200.000000   450.000000     9.591215
   250.000000   450.000000    -5.616270   250.000000   450.000000     9.340119
   300.000000   450.000000    -5.574320   300.000000   450.000000     9.384025
   350.000000   450.000000    -5.202033   350.000000   450.000000     9.762346
   400.000000   450.000000    -4.486840   400.000000   450.000000    10.487059
   450.000000   450.000000    -3.445643   450.000000   450.000000    11.540332
   500.000000   450.000000    -2.124466   500.000000   450.000000    12.874957
   550.000000   450.000000    -0.595332   550.000000   450.000000    14.417596
   600.000000   450.000000     1.049382   600.000000   450.000000    16.074549
   650.000000   450.000000     2.704574   650.000000   450.000000    17.739517
   700.000000   450.000000     4.261328   700.000000   450.000000    19.302627
   750.000000   450.000000     5.616270   750.000000   450.000000    20.659881
   800.000000   450.000000     6.680479   800.000000   450.000000    21.722134
   850.000000   450.000000     7.387113   850.000000   450.000000    22.422735
   900.000000   450.000000     7.697038   900.000000   450.000000    22.723138
   950.000000   450.000000     7.601912   950.000000   450.000000    22.615937
  1000.000000   450.000000     7.124466  1000.000000   450.000000    22.125043
     0.000000   480.000000    -3.215687     0.000000   480.000000    11.703468
    50.000000   480.000000    -3.907913    50.000000   480.000000    10.946703
   100.000000   480.000000    -4.579412   100.000000   480.000000    10.224894
   150.000000   480.000000    -5.151037   150.000000   480.000000     9.622117
   200.000000   480.000000    -5.544834   200.000000   480.000000     9.219372
   250.000000   480.000000    -5.692221   250.000000   480.000000     9.086118
   300.000000   480.000000    -5.541441   300.000000   480.000000     9.272730
   350.000000   480.000000    -5.063542   350.000000   480.000000     9.804650
   400.000000   480.000000    -4.256293   400.000000   480.000000    10.678822
   450.000000   480.000000    -3.145608   450.000000   480.000000    11.862783
   500.000000   480.000000    -1.784313   500.000000   480.000000    13.296532
   550.000000   480.000000    -0.248357   550.000000   480.000000    14.897028
   600.000000   480.000000     1.369215   600.000000   480.000000    16.564908
   650.000000   480.000000     2.965957   650.000000   480.000000    18.192803
   700.000000   480.000000     4.438675   700.000000   480.000000    19.674469
   750.000000   480.000000     5.692221   750.000000   480.000000    20.913882
   800.000000   480.000000     6.647599   800.000000   480.000000    21.833429
   850.000000   480.000000     7.248622   850.000000   480.000000    22.380430
   900.000000   480.000000     7.466491   900.000000   480.000000    22.531375
   950.000000   480.000000     7.301877   950.000000   480.000000    22.293486
  1000.000000   480.000000     6.784313  1000.000000   480.000000    21.703468
     0.000000   510.000000    -3.607265     0.000000   510.000000    11.261349
    50.000000   510.000000    -4.317240    50.000000   510.000000    10.460451
   100.000000   510.000000    -4.966422   100.000000   510.000000     9.742108
   150.000000   510.000000    -5.477845   150.000000   510.000000     9.190054
   200.000000   510.000000    -5.779450   200.000000   510.000000     8.880326
   250.000000   510.000000    -5.811680   250.000000   510.000000     8.873277
   300.000000   510.000000    -5.534049   300.000000   510.000000     9.206928
   350.000000   510.000000    -4.930022   350.000000   510.000000     9.892329
   400.000000   510.000000    -4.009716   400.000000   510.000000    10.911399
   450.000000   510.000000    -2.810110   450.000000   510.000000    12.217492
   500.000000   510.000000    -1.392735   500.000000   510.000000    13.738651
   550.000000   510.000000     0.160971   550.000000   510.000000    15.383279
   600.000000   510.000000     1.756224   600.000000   510.000000    17.047695
   650.000000   510.000000     3.292765   650.000000   510.000000    18.624866
   700.000000   510.000000     4.673291   700.000000   510.000000    20.013515
   750.000000   510.000000     5.811680   750.000000   510.000000    21.126723
   800.000000   510.000000     6.640207   800.000000   510.000000    21.899231
   850.000000   510.000000     7.115102   850.000000   510.000000    22.292751
   900.000000   510.000000     7.219914   900.000000   510.000000    22.298799
   950.000000   510.000000     6.966379   950.000000   510.000000    21.938778
  1000.000000   510.000000     6.392735  1000.000000   510.000000    21.261349