-- The following file was written from MATLAB using the MRST toolbox.

SPECGRID
5 5 5 1 F
/

COORD
     0.000000     0.000000    -4.886455     0.000000     0.000000     9.994825
   200.000000     0.000000    -1.390075   200.000000     0.000000    13.852453
   400.000000     0.000000    -0.017743   400.000000     0.000000    15.250868
   600.000000     0.000000    -0.165976   600.000000     0.000000    14.757506
   800.000000     0.000000     1.460250   800.000000     0.000000    16.144348
  1000.000000     0.000000     5.113545  1000.000000     0.000000    19.994825
     0.000000   120.000000    -3.253234     0.000000   120.000000    11.767295
   200.000000   120.000000    -1.162963   200.000000   120.000000    13.774309
   400.000000   120.000000    -1.510602   400.000000   120.000000    13.430101
   600.000000   120.000000    -1.315725   600.000000   120.000000    13.710355
   800.000000   120.000000     2.242524   800.000000   120.000000    17.317940
  1000.000000   120.000000     6.746766  1000.000000   120.000000    21.767295
     0.000000   240.000000    -2.233533     0.000000   240.000000    12.851970
   200.000000   240.000000    -2.130416   200.000000   240.000000    12.728552
   400.000000   240.000000    -3.128222   400.000000   240.000000    11.699113
   600.000000   240.000000    -1.348016   600.000000   240.000000    13.686303
   800.000000   240.000000     3.840187   800.000000   240.000000    19.034063
  1000.000000   240.000000     7.766467  1000.000000   240.000000    22.851970
     0.000000   360.000000    -1.989954     0.000000   360.000000    12.851170
   200.000000   360.000000    -4.318867   200.000000   360.000000    10.972055
   400.000000   360.000000    -4.724338   400.000000   360.000000    10.614338
   600.000000   360.000000    -0.146019   600.000000   360.000000    14.772372
   800.000000   360.000000     6.179178   800.000000   360.000000    20.790065
  1000.000000   360.000000     8.010046  1000.000000   360.000000    22.851170
     0.000000   480.000000    -3.403774     0.000000   480.000000    11.767790
   200.000000   480.000000    -5.516765   200.000000   480.000000     9.153545
   400.000000   480.000000    -4.050859   400.000000   480.000000    10.573817
   600.000000   480.000000     1.468111   600.000000   480.000000    16.565839
   800.000000   480.000000     6.503286   800.000000   480.000000    21.939010
  1000.000000   480.000000     6.596226  1000.000000   480.000000    21.767790
     0.000000   600.000000    -4.886455     0.000000   600.000000     9.994825
   200.000000   600.000000    -7.096414   200.000000   600.000000     8.146114
   400.000000   600.000000    -3.544455   400.000000   600.000000    11.724156
   600.000000   600.000000     3.360735   600.000000   600.000000    18.284218
   800.000000   600.000000     7.166589   800.000000   600.000000    21.850687
  1000.000000   600.000000     5.113545  1000.000000   600.000000    19.994825
/

ZCORN
    -6.886455    -3.390075    -3.390075    -2.017743    -2.017743    -2.165976    -0.165976     1.460250
     1.460250     5.113545    -5.253234    -3.162963    -3.162963    -3.510602    -3.510602    -3.315725
    -1.315725     2.242524     2.242524     6.746766    -5.253234    -3.162963    -3.162963    -3.510602
    -3.510602    -3.315725    -1.315725     2.242524     2.242524     6.746766    -4.233533    -4.130416
    -4.130416    -5.128222    -5.128222    -3.348016    -1.348016     3.840187     3.840187     7.766467
    -4.233533    -4.130416    -4.130416    -5.128222    -5.128222    -3.348016     1.651984     6.840187
     6.840187    10.766467    -3.989954    -6.318867    -6.318867    -6.724338    -6.724338    -2.146019
     2.853981     9.179178     9.179178    11.010046    -1.989954    -4.318867    -4.318867    -4.724338
    -4.724338    -0.146019     2.853981     9.179178     9.179178    11.010046    -3.403774    -5.516765
    -5.516765    -4.050859    -4.050859     1.468111     4.468111     9.503286     9.503286     9.596226
    -3.403774    -5.516765    -5.516765    -4.050859    -4.050859     1.468111     4.468111     9.503286
     9.503286     9.596226    -4.886455    -7.096414    -7.096414    -3.544455    -3.544455     3.360735
     6.360735    10.166589    10.166589     8.113545    -3.990412    -0.163389    -0.163389     1.226314
     1.226314     0.758173     2.758173     4.169314     4.169314     8.009588    -2.333658    -0.480563
    -0.480563    -0.626466    -0.626466    -0.069733     1.930267     5.510419     5.510419     9.666342
    -2.333658    -0.480563    -0.480563    -0.626466    -0.626466    -0.069733     1.930267     5.510419
     5.510419     9.666342    -0.999447    -0.843214    -0.843214    -2.184807    -2.184807    -0.670189
     1.329811     6.697658     6.697658    11.000553    -0.999447    -0.843214    -0.843214    -2.184807
    -2.184807    -0.670189     4.329811     9.697658     9.697658    14.000553    -1.288288    -3.465969
    -3.465969    -3.516918    -3.516918     1.129276     6.129276    12.141899    12.141899    13.711712
     0.711712    -1.465969    -1.465969    -1.516918    -1.516918     3.129276     6.129276    12.141899
    12.141899    13.711712    -0.155144    -2.565950    -2.565950    -1.329887    -1.329887     4.344848
     7.344848    12.706134    12.706134    12.844856    -0.155144    -2.565950    -2.565950    -1.329887
    -1.329887     4.344848     7.344848    12.706134    12.706134    12.844856    -1.990412    -3.869728
    -3.869728    -0.300398    -0.300398     6.284885     9.284885    12.875653    12.875653    11.009588
    -3.990412    -0.163389    -0.163389     1.226314     1.226314     0.758173     2.758173     4.169314
     4.169314     8.009588    -2.333658    -0.480563    -0.480563    -0.626466    -0.626466    -0.069733
     1.930267     5.510419     5.510419     9.666342    -2.333658    -0.480563    -0.480563    -0.626466
    -0.626466    -0.069733     1.930267     5.510419     5.510419     9.666342    -0.999447    -0.843214
    -0.843214    -2.184807    -2.184807    -0.670189     1.329811     6.697658     6.697658    11.000553
    -0.999447    -0.843214    -0.843214    -2.184807    -2.184807    -0.670189     4.329811     9.697658
     9.697658    14.000553    -1.288288    -3.465969    -3.465969    -3.516918    -3.516918     1.129276
     6.129276    12.141899    12.141899    13.711712     0.711712    -1.465969    -1.465969    -1.516918
    -1.516918     3.129276     6.129276    12.141899    12.141899    13.711712    -0.155144    -2.565950
    -2.565950    -1.329887    -1.329887     4.344848     7.344848    12.706134    12.706134    12.844856
    -0.155144    -2.565950    -2.565950    -1.329887    -1.329887     4.344848     7.344848    12.706134
    12.706134    12.844856    -1.990412    -3.869728    -3.869728    -0.300398    -0.300398     6.284885
     9.284885    12.875653    12.875653    11.009588    -0.982395     2.849387     2.849387     4.226192
     4.226192     3.745322     5.745322     7.161493     7.161493    11.017605     0.761037     2.802645
     2.802645     2.453872     2.453872     2.696710     4.696710     8.285736     8.285736    12.761037
     0.761037     2.802645     2.802645     2.453872     2.453872     2.696710     4.696710     8.285736
     8.285736    12.761037     1.839316     1.685769     1.685769     0.685326     0.685326     2.720564
     4.720564    10.069024    10.069024    13.839316     1.839316     1.685769     1.685769     0.685326
     0.685326     2.720564     7.720564    13.069024    13.069024    16.839316     1.877904     0.012943
     0.012943    -0.387126    -0.387126     3.730580     8.730580    14.765700    14.765700    16.877904
     3.877904     2.012943     2.012943     1.612874     1.612874     5.730580     8.730580    14.765700
    14.765700    16.877904     2.737189     0.130170     0.130170     1.589972     1.589972     7.599198
    10.599198    15.943472    15.943472    15.737189     2.737189     0.130170     0.130170     1.589972
     1.589972     7.599198    10.599198    15.943472    15.943472    15.737189     1.017605    -0.856952
    -0.856952     2.699481     2.699481     9.272034    12.272034    15.867833    15.867833    14.017605
    -0.982395     2.849387     2.849387     4.226192     4.226192     3.745322     5.745322     7.161493
     7.161493    11.017605     0.761037     2.802645     2.802645     2.453872     2.453872     2.696710
     4.696710     8.285736     8.285736    12.761037     0.761037     2.802645     2.802645     2.453872
     2.453872     2.696710     4.696710     8.285736     8.285736    12.761037     1.839316     1.685769
     1.685769     0.685326     0.685326     2.720564     4.720564    10.069024    10.069024    13.839316
     1.839316     1.685769     1.685769     0.685326     0.685326     2.720564     7.720564    13.069024
    13.069024    16.839316     1.877904     0.012943     0.012943    -0.387126    -0.387126     3.730580
     8.730580    14.765700    14.765700    16.877904     3.877904     2.012943     2.012943     1.612874
     1.612874     5.730580     8.730580    14.765700    14.765700    16.877904     2.737189     0.130170
     0.130170     1.589972     1.589972     7.599198    10.599198    15.943472    15.943472    15.737189
     2.737189     0.130170     0.130170     1.589972     1.589972     7.599198    10.599198    15.943472
    15.943472    15.737189     1.017605    -0.856952    -0.856952     2.699481     2.699481     9.272034
    12.272034    15.867833    15.867833    14.017605     2.033799     5.736179     5.736179     7.140031
     7.140031     6.805280     8.805280    10.284711    10.284711    14.033799     3.640445     6.069568
     6.069568     5.739431     5.739431     5.606272     7.606272    10.944283    10.944283    15.640445
     3.640445     6.069568     6.069568     5.739431     5.739431     5.606272     7.606272    10.944283
    10.944283    15.640445     5.018243     4.367087     4.367087     3.309442     3.309442     5.806938
     7.806938    13.498290    13.498290    17.018243     5.018243     4.367087     4.367087     3.309442
     3.309442     5.806938    10.806938    16.498290    16.498290    20.018243     4.708985     3.261658
     3.261658     2.935508     2.935508     6.681263    11.681263    17.412587    17.412587    19.708985
     6.708985     5.261658     5.261658     4.935508     4.935508     8.681263    11.681263    17.412587
    17.412587    19.708985     5.831578     3.046422     3.046422     4.443824     4.443824    10.592621
    13.592621    19.085555    19.085555    18.831578     5.831578     3.046422     3.046422     4.443824
     4.443824    10.592621    13.592621    19.085555    19.085555    18.831578     4.033799     2.029839
     2.029839     5.613319     5.613319    12.331992    15.331992    18.991050    18.991050    17.033799
     2.033799     5.736179     5.736179     7.140031     7.140031     6.805280     8.805280    10.284711
    10.284711    14.033799     3.640445     6.069568     6.069568     5.739431     5.739431     5.606272
     7.606272    10.944283    10.944283    15.640445     3.640445     6.069568     6.069568     5.739431
     5.739431     5.606272     7.606272    10.944283    10.944283    15.640445     5.018243     4.367087
     4.367087     3.309442     3.309442     5.806938     7.806938    13.498290    13.498290    17.018243
     5.018243     4.367087     4.367087     3.309442     3.309442     5.806938    10.806938    16.498290
    16.498290    20.018243     4.708985     3.261658     3.261658     2.935508     2.935508     6.681263
    11.681263    17.412587    17.412587    19.708985     6.708985     5.261658     5.261658     4.935508
     4.935508     8.681263    11.681263    17.412587    17.412587    19.708985     5.831578     3.046422
     3.046422     4.443824     4.443824    10.592621    13.592621    19.085555    19.085555    18.831578
     5.831578     3.046422     3.046422     4.443824     4.443824    10.592621    13.592621    19.085555
    19.085555    18.831578     4.033799     2.029839     2.029839     5.613319     5.613319    12.331992
    15.331992    18.991050    18.991050    17.033799     4.961800     8.804439     8.804439    10.254217
    10.254217     9.807591    11.807591    13.171952    13.171952    16.961800     6.974194     8.828206
     8.828206     8.256512     8.256512     8.549175    10.549175    14.391913    14.391913    18.974194
     6.974194     8.828206     8.828206     8.256512     8.256512     8.549175    10.549175    14.391913
    14.391913    18.974194     7.550226     7.689360     7.689360     6.976635     6.976635     8.897013
    10.897013    15.886767    15.886767    19.550226     7.550226     7.689360     7.689360     6.976635
     6.976635     8.897013    13.897013    18.886767    18.886767    22.550226     8.132504     5.981573
     5.981573     5.338886     5.338886     9.592615    14.592615    20.954421    20.954421    23.132504
    10.132504     7.981573     7.981573     7.338886     7.338886    11.592615    14.592615    20.954421
    20.954421    23.132504     8.614326     6.177337     6.177337     7.741985     7.741985    13.645980
    16.645980    21.820372    21.820372    21.614326     8.614326     6.177337     6.177337     7.741985
     7.741985    13.645980    16.645980    21.820372    21.820372    21.614326     6.961800     5.098100
     5.098100     8.727506     8.727506    15.334303    18.334303    21.878291    21.878291    19.961800
     4.961800     8.804439     8.804439    10.254217    10.254217     9.807591    11.807591    13.171952
    13.171952    16.961800     6.974194     8.828206     8.828206     8.256512     8.256512     8.549175
    10.549175    14.391913    14.391913    18.974194     6.974194     8.828206     8.828206     8.256512
     8.256512     8.549175    10.549175    14.391913    14.391913    18.974194     7.550226     7.689360
     7.689360     6.976635     6.976635     8.897013    10.897013    15.886767    15.886767    19.550226
     7.550226     7.689360     7.689360     6.976635     6.976635     8.897013    13.897013    18.886767
    18.886767    22.550226     8.132504     5.981573     5.981573     5.338886     5.338886     9.592615
    14.592615    20.954421    20.954421    23.132504    10.132504     7.981573     7.981573     7.338886
     7.338886    11.592615    14.592615    20.954421    20.954421    23.132504     8.614326     6.177337
     6.177337     7.741985     7.741985    13.645980    16.645980    21.820372    21.820372    21.614326
     8.614326     6.177337     6.177337     7.741985     7.741985    13.645980    16.645980    21.820372
    21.820372    21.614326     6.961800     5.098100     5.098100     8.727506     8.727506    15.334303
    18.334303    21.878291    21.878291    19.961800     7.994825    11.852453    11.852453    13.250868
    13.250868    12.757506    14.757506    16.144348    16.144348    19.994825     9.767295    11.774309
    11.774309    11.430101    11.430101    11.710355    13.710355    17.317940    17.317940    21.767295
     9.767295    11.774309    11.774309    11.430101    11.430101    11.710355    13.710355    17.317940
    17.317940    21.767295    10.851970    10.728552    10.728552     9.699113     9.699113    11.686303
    13.686303    19.034063    19.034063    22.851970    10.851970    10.728552    10.728552     9.699113
     9.699113    11.686303    16.686303    22.034063    22.034063    25.851970    10.851170     8.972055
     8.972055     8.614338     8.614338    12.772372    17.772372    23.790065    23.790065    25.851170
    12.851170    10.972055    10.972055    10.614338    10.614338    14.772372    17.772372    23.790065
    23.790065    25.851170    11.767790     9.153545     9.153545    10.573817    10.573817    16.565839
    19.565839    24.939010    24.939010    24.767790    11.767790     9.153545     9.153545    10.573817
    10.573817    16.565839    19.565839    24.939010    24.939010    24.767790     9.994825     8.146114
     8.146114    11.724156    11.724156    18.284218    21.284218    24.850687    24.850687    22.994825
/

ACTNUM
 0 0 0 0 0 0 1 1 1 1 1 1 1 1 1 1 1 1 1 1
 0 0 0 0 0 0 0 0 0 0 0 1 1 1 1 1 1 1 1 1
 1 1 1 1 1 0 0 0 0 0 0 0 0 0 0 0 1 1 1 1
 1 1 1 1 1 1 1 1 1 1 0 0 0 0 0 0 0 0 0 0
 0 1 1 1 1 1 1 1 1 1 1 1 1 1 1 0 0 0 0 0
 0 0 0 0 0 0 1 1 1 1 1 1 1 1 1 1 1 1 1 1
 0 0 0 0 0 /
