-- The following file was written from MATLAB using the MRST toolbox.

SPECGRID
4 4 4 1 F
/

COORD
     0.000000     0.000000     0.500000     0.000000     0.000000     0.600000
     0.225000     0.000000     0.500000     0.225000     0.000000     0.600000
     0.450000     0.000000     0.500000     0.450000     0.000000     0.600000
     0.725000     0.000000     0.500000     0.725000     0.000000     0.600000
     1.000000     0.000000     0.500000     1.000000     0.000000     0.600000
     0.000000     0.250000     0.500000     0.000000     0.250000     0.600000
     0.225000     0.250000     0.519754     0.225000     0.250000     0.694560
     0.450000     0.250000     0.506180     0.450000     0.250000     0.626448
     0.725000     0.250000     0.480246     0.725000     0.250000     0.625369
     1.000000     0.250000     0.500000     1.000000     0.250000     0.689135
     0.000000     0.500000     0.500000     0.000000     0.500000     0.600000
     0.225000     0.500000     0.500000     0.225000     0.500000     0.626584
     0.450000     0.500000     0.500000     0.450000     0.500000     0.610148
     0.725000     0.500000     0.500000     0.725000     0.500000     0.616719
     1.000000     0.500000     0.500000     1.000000     0.500000     0.639600
     0.000000     0.750000     0.500000     0.000000     0.750000     0.600000
     0.225000     0.750000     0.480246     0.225000     0.750000     0.552566
     0.450000     0.750000     0.493820     0.450000     0.750000     0.600430
     0.725000     0.750000     0.519754     0.725000     0.750000     0.613365
     1.000000     0.750000     0.500000     1.000000     0.750000     0.586311
     0.000000     1.000000     0.500000     0.000000     1.000000     0.600000
     0.225000     1.000000     0.500000     0.225000     1.000000     0.602416
     0.450000     1.000000     0.500000     0.450000     1.000000     0.596460
     0.725000     1.000000     0.500000     0.725000     1.000000     0.594499
     1.000000     1.000000     0.500000     1.000000     1.000000     0.616817
/

ZCORN
     0.500000     0.500000     0.500000     0.500000     0.600000     0.600000     0.600000     0.600000
     0.500000     0.519754     0.519754     0.506180     0.606180     0.580246     0.580246     0.600000
     0.500000     0.519754     0.519754     0.506180     0.606180     0.580246     0.580246     0.600000
     0.500000     0.500000     0.500000     0.500000     0.600000     0.600000     0.600000     0.600000
     0.500000     0.500000     0.500000     0.500000     0.600000     0.600000     0.600000     0.600000
     0.500000     0.480246     0.480246     0.493820     0.593820     0.619754     0.619754     0.600000
     0.500000     0.480246     0.480246     0.493820     0.593820     0.619754     0.619754     0.600000
     0.500000     0.500000     0.500000     0.500000     0.600000     0.600000     0.600000     0.600000
     0.525000     0.525000     0.525000     0.525000     0.625000     0.625000     0.625000     0.625000
     0.525000     0.586165     0.586165     0.506180     0.606180     0.596769     0.596769     0.662341
     0.525000     0.586165     0.586165     0.506180     0.606180     0.596769     0.596769     0.662341
     0.525000     0.530292     0.530292     0.521686     0.621686     0.623917     0.623917     0.629772
     0.525000     0.530292     0.530292     0.521686     0.621686     0.623917     0.623917     0.629772
     0.525000     0.480246     0.480246     0.544326     0.644326     0.653093     0.653093     0.600000
     0.525000     0.480246     0.480246     0.544326     0.644326     0.653093     0.653093     0.600000
     0.525000     0.514502     0.514502     0.531574     0.631574     0.627149     0.627149     0.615533
     0.525000     0.525000     0.525000     0.525000     0.625000     0.625000     0.625000     0.625000
     0.525000     0.586165     0.586165     0.506180     0.606180     0.596769     0.596769     0.662341
     0.525000     0.586165     0.586165     0.506180     0.606180     0.596769     0.596769     0.662341
     0.525000     0.530292     0.530292     0.521686     0.621686     0.623917     0.623917     0.629772
     0.525000     0.530292     0.530292     0.521686     0.621686     0.623917     0.623917     0.629772
     0.525000     0.480246     0.480246     0.544326     0.644326     0.653093     0.653093     0.600000
     0.525000     0.480246     0.480246     0.544326     0.644326     0.653093     0.653093     0.600000
     0.525000     0.514502     0.514502     0.531574     0.631574     0.627149     0.627149     0.615533
     0.550000     0.550000     0.550000     0.550000     0.650000     0.650000     0.650000     0.650000
     0.550000     0.613467     0.613467     0.535588     0.635588     0.628220     0.628220     0.695012
     0.550000     0.613467     0.613467     0.535588     0.635588     0.628220     0.628220     0.695012
     0.550000     0.559772     0.559772     0.555260     0.655260     0.661466     0.661466     0.669695
     0.550000     0.559772     0.559772     0.555260     0.655260     0.661466     0.661466     0.669695
     0.550000     0.511657     0.511657     0.581597     0.681597     0.696054     0.696054     0.646357
     0.550000     0.511657     0.511657     0.581597     0.681597     0.696054     0.696054     0.646357
     0.550000     0.547493     0.547493     0.571870     0.671870     0.674538     0.674538     0.667156
     0.550000     0.550000     0.550000     0.550000     0.650000     0.650000     0.650000     0.650000
     0.550000     0.613467     0.613467     0.535588     0.635588     0.628220     0.628220     0.695012
     0.550000     0.613467     0.613467     0.535588     0.635588     0.628220     0.628220     0.695012
     0.550000     0.559772     0.559772     0.555260     0.655260     0.661466     0.661466     0.669695
     0.550000     0.559772     0.559772     0.555260     0.655260     0.661466     0.661466     0.669695
     0.550000     0.511657     0.511657     0.581597     0.681597     0.696054     0.696054     0.646357
     0.550000     0.511657     0.511657     0.581597     0.681597     0.696054     0.696054     0.646357
     0.550000     0.547493     0.547493     0.571870     0.671870     0.674538     0.674538     0.667156
     0.575000     0.575000     0.575000     0.575000     0.675000     0.675000     0.675000     0.675000
     0.575000     0.644586     0.644586     0.558013     0.658013     0.650010     0.650010     0.726256
     0.575000     0.644586     0.644586     0.558013     0.658013     0.650010     0.650010     0.726256
     0.575000     0.596046     0.596046     0.575516     0.675516     0.680551     0.680551     0.706199
     0.575000     0.596046     0.596046     0.575516     0.675516     0.680551     0.680551     0.706199
     0.575000     0.551312     0.551312     0.600430     0.700430     0.713365     0.713365     0.686311
     0.575000     0.551312     0.551312     0.600430     0.700430     0.713365     0.713365     0.686311
     0.575000     0.588221     0.588221     0.590251     0.690251     0.691286     0.691286     0.708205
     0.575000     0.575000     0.575000     0.575000     0.675000     0.675000     0.675000     0.675000
     0.575000     0.644586     0.644586     0.558013     0.658013     0.650010     0.650010     0.726256
     0.575000     0.644586     0.644586     0.558013     0.658013     0.650010     0.650010     0.726256
     0.575000     0.596046     0.596046     0.575516     0.675516     0.680551     0.680551     0.706199
     0.575000     0.596046     0.596046     0.575516     0.675516     0.680551     0.680551     0.706199
     0.575000     0.551312     0.551312     0.600430     0.700430     0.713365     0.713365     0.686311
     0.575000     0.551312     0.551312     0.600430     0.700430     0.713365     0.713365     0.686311
     0.575000     0.588221     0.588221     0.590251     0.690251     0.691286     0.691286     0.708205
     0.600000     0.600000     0.600000     0.600000     0.700000     0.700000     0.700000     0.700000
     0.600000     0.694560     0.694560     0.626448     0.726448     0.725369     0.725369     0.789135
     0.600000     0.694560     0.694560     0.626448     0.726448     0.725369     0.725369     0.789135
     0.600000     0.626584     0.626584     0.610148     0.710148     0.716719     0.716719     0.739600
     0.600000     0.626584     0.626584     0.610148     0.710148     0.716719     0.716719     0.739600
     0.600000     0.552566     0.552566     0.600430     0.700430     0.713365     0.713365     0.686311
     0.600000     0.552566     0.552566     0.600430     0.700430     0.713365     0.713365     0.686311
     0.600000     0.602416     0.602416     0.596460     0.696460     0.694499     0.694499     0.716817
/

ACTNUM
 1 1 1 1 1 1 1 1 1 1 1 1 1 1 1 1 1 1 1 1
 1 1 1 1 1 1 1 1 1 1 1 1 1 1 1 1 1 1 1 1
 1 1 1 1 1 1 1 1 1 1 1 1 1 1 1 1 1 1 1 1
 1 1 1 1 /
