-- The following file was written from MATLAB using the MRST toolbox.

SPECGRID
2 1 2 1 F
/

COORD
     0.000000     0.000000     0.000000     0.000000     0.000000     0.000000
     1.000000     0.000000     0.000000     1.000000     0.000000     0.000000
     2.000000     0.000000     0.000000     2.000000     0.000000     0.000000
     0.000000     1.000000     0.000000     0.000000     1.000000     0.000000
     1.000000     1.000000     0.000000     1.000000     1.000000     0.000000
     2.000000     1.000000     0.000000     2.000000     1.000000     0.000000
/

ZCORN
     0.000000     0.000000     0.000000     0.000000     0.000000     0.000000     0.000000     0.000000
     1.600000     1.600000     0.500000     0.500000     1.000000     1.000000     0.500000     0.500000
     1.600000     1.600000     0.500000     0.500000     1.000000     1.000000     0.500000     0.500000
     2.000000     2.000000     1.500000     1.500000     2.000000     2.000000     1.500000     1.500000
/
