-- The following file was written from MATLAB using the MRST toolbox.

SPECGRID
2 2 2 1 F
/

COORD
     0.000000     0.000000     0.000000     0.000000     0.000000    32.000000
   225.000000     0.000000     0.000000   275.000000     0.000000    32.000000
   500.000000     0.000000     0.000000   500.000000     0.000000    32.000000
     0.000000    50.000000     0.000000     0.000000    50.000000    32.000000
   225.000000    50.000000     0.000000   275.000000    50.000000    32.000000
   500.000000    50.000000     0.000000   500.000000    50.000000    32.000000
     0.000000   100.000000     0.000000     0.000000   100.000000    32.000000
   225.000000   100.000000     0.000000   275.000000   100.000000    32.000000
   500.000000   100.000000     0.000000   500.000000   100.000000    32.000000
/

ZCORN
     0.000000     0.000000     5.000000     5.000000     0.000000     0.000000     5.000000     5.000000
     0.000000     0.000000     5.000000     5.000000     0.000000     0.000000     5.000000     5.000000
    16.000000    16.000000    21.000000    21.000000    16.000000    16.000000    21.000000    21.000000
    16.000000    16.000000    21.000000    21.000000    16.000000    16.000000    21.000000    21.000000
    16.000000    16.000000    21.000000    21.000000    16.000000    16.000000    21.000000    21.000000
    16.000000    16.000000    21.000000    21.000000    16.000000    16.000000    21.000000    21.000000
    32.000000    32.000000    37.000000    37.000000    32.000000    32.000000    37.000000    37.000000
    32.000000    32.000000    37.000000    37.000000    32.000000    32.000000    37.000000    37.000000
/

ACTNUM
 1 1 1 1 1 1 1 1 /
